<?xml version="1.0" encoding="UTF-8"?>

<!-- generated on 2022-02-24 17:56:42 by Eclipse SUMO sumo Version 1.10.0
<configuration xmlns:xsi="http://www.w3.org/2001/XMLSchema-instance" xsi:noNamespaceSchemaLocation="http://sumo.dlr.de/xsd/sumoConfiguration.xsd">

    <input>
        <net-file value="/home/tedy/Sumo/myscript/simulation/updated.net.xml"/>
        <route-files value="/home/tedy/Sumo/Data/Out/DUAout.xml"/>
        <additional-files value="/home/tedy/Sumo/myscript/simulation/additional.xml,/home/tedy/Sumo/Data/Out/Vtype.xml"/>
    </input>

    <output>
        <statistic-output value="/home/tedy/Sumo/myscript/simulation/stat.xml"/>
    </output>

    <time>
        <end value="86400"/>
    </time>

    <processing>
        <ignore-route-errors value="true"/>
        <collision.action value="teleport"/>
        <time-to-teleport value="3600"/>
    </processing>

    <routing>
        <device.rerouting.adaptation-steps value="18"/>
        <device.rerouting.adaptation-interval value="10"/>
    </routing>

    <report>
        <verbose value="true"/>
        <log value="/home/tedy/Sumo/myscript/simulation/log.xml"/>
        <duration-log.statistics value="true"/>
    </report>

    <gui_only>
        <gui-settings-file value="/home/tedy/Sumo/myscript/simulation/osm.view.xml"/>
    </gui_only>

</configuration>
-->

<detector xmlns:xsi="http://www.w3.org/2001/XMLSchema-instance" xsi:noNamespaceSchemaLocation="http://sumo.dlr.de/xsd/det_e1_file.xsd">
    <interval begin="0.00" end="3600.00" id="601:1Din" nVehContrib="3" flow="3.00" occupancy="0.05" speed="9.05" harmonicMeanSpeed="9.03" length="5.00" nVehEntered="3"/>
    <interval begin="0.00" end="3600.00" id="601:3Din" nVehContrib="7" flow="7.00" occupancy="0.09" speed="11.25" harmonicMeanSpeed="11.03" length="5.00" nVehEntered="7"/>
    <interval begin="0.00" end="3600.00" id="601:9Din" nVehContrib="1" flow="1.00" occupancy="0.06" speed="2.31" harmonicMeanSpeed="2.31" length="5.00" nVehEntered="1"/>
    <interval begin="0.00" end="3600.00" id="601:5Din" nVehContrib="0" flow="0.00" occupancy="0.00" speed="-1.00" harmonicMeanSpeed="-1.00" length="-1.00" nVehEntered="0"/>
    <interval begin="0.00" end="3600.00" id="601:7Din" nVehContrib="2" flow="2.00" occupancy="0.06" speed="4.78" harmonicMeanSpeed="4.70" length="5.00" nVehEntered="2"/>
    <interval begin="0.00" end="3600.00" id="601:11Din" nVehContrib="12" flow="12.00" occupancy="0.65" speed="2.58" harmonicMeanSpeed="2.57" length="5.00" nVehEntered="12"/>
    <interval begin="0.00" end="3600.00" id="601:13Din" nVehContrib="4" flow="4.00" occupancy="0.09" speed="6.60" harmonicMeanSpeed="6.43" length="5.00" nVehEntered="4"/>
    <interval begin="0.00" end="3600.00" id="601:15Din" nVehContrib="0" flow="0.00" occupancy="0.00" speed="-1.00" harmonicMeanSpeed="-1.00" length="-1.00" nVehEntered="0"/>
    <interval begin="0.00" end="3600.00" id="601:17Din" nVehContrib="1" flow="1.00" occupancy="0.03" speed="5.43" harmonicMeanSpeed="5.43" length="5.00" nVehEntered="1"/>
    <interval begin="0.00" end="3600.00" id="502:19Din" nVehContrib="15" flow="15.00" occupancy="1.01" speed="2.49" harmonicMeanSpeed="2.48" length="5.00" nVehEntered="18"/>
    <interval begin="0.00" end="3600.00" id="502:21Din" nVehContrib="3" flow="3.00" occupancy="0.09" speed="4.59" harmonicMeanSpeed="4.59" length="5.00" nVehEntered="3"/>
    <interval begin="0.00" end="3600.00" id="502:23Din" nVehContrib="0" flow="0.00" occupancy="0.00" speed="-1.00" harmonicMeanSpeed="-1.00" length="-1.00" nVehEntered="0"/>
    <interval begin="0.00" end="3600.00" id="502:17Din" nVehContrib="13" flow="13.00" occupancy="0.24" speed="7.60" harmonicMeanSpeed="7.52" length="5.00" nVehEntered="13"/>
    <interval begin="0.00" end="3600.00" id="502:15Din" nVehContrib="52" flow="52.00" occupancy="0.92" speed="8.00" harmonicMeanSpeed="7.83" length="5.00" nVehEntered="52"/>
    <interval begin="0.00" end="3600.00" id="502:13Din" nVehContrib="0" flow="0.00" occupancy="0.00" speed="-1.00" harmonicMeanSpeed="-1.00" length="-1.00" nVehEntered="0"/>
    <interval begin="0.00" end="3600.00" id="502:11Din" nVehContrib="17" flow="17.00" occupancy="0.18" speed="16.87" harmonicMeanSpeed="12.81" length="5.00" nVehEntered="17"/>
    <interval begin="0.00" end="3600.00" id="502:1Din" nVehContrib="12" flow="12.00" occupancy="0.11" speed="18.13" harmonicMeanSpeed="14.66" length="5.00" nVehEntered="12"/>
    <interval begin="0.00" end="3600.00" id="502:3Din" nVehContrib="3" flow="3.00" occupancy="0.03" speed="15.01" harmonicMeanSpeed="13.16" length="5.00" nVehEntered="3"/>
    <interval begin="0.00" end="3600.00" id="502:5Din" nVehContrib="0" flow="0.00" occupancy="0.00" speed="-1.00" harmonicMeanSpeed="-1.00" length="-1.00" nVehEntered="0"/>
    <interval begin="0.00" end="3600.00" id="502:7Din" nVehContrib="15" flow="15.00" occupancy="0.79" speed="2.66" harmonicMeanSpeed="2.65" length="5.00" nVehEntered="15"/>
    <interval begin="0.00" end="3600.00" id="502:9Din" nVehContrib="2" flow="2.00" occupancy="0.05" speed="5.24" harmonicMeanSpeed="5.23" length="5.00" nVehEntered="2"/>
    <interval begin="0.00" end="3600.00" id="302:9Din" nVehContrib="7" flow="7.00" occupancy="0.12" speed="8.00" harmonicMeanSpeed="8.00" length="5.00" nVehEntered="7"/>
    <interval begin="0.00" end="3600.00" id="302:11Din" nVehContrib="5" flow="5.00" occupancy="0.07" speed="12.43" harmonicMeanSpeed="10.13" length="5.00" nVehEntered="5"/>
    <interval begin="0.00" end="3600.00" id="302:13Din" nVehContrib="2" flow="2.00" occupancy="0.01" speed="26.73" harmonicMeanSpeed="26.72" length="5.00" nVehEntered="2"/>
    <interval begin="0.00" end="3600.00" id="302:15Din" nVehContrib="3" flow="3.00" occupancy="0.02" speed="22.50" harmonicMeanSpeed="22.36" length="5.00" nVehEntered="3"/>
    <interval begin="0.00" end="3600.00" id="302:17Din" nVehContrib="2" flow="2.00" occupancy="0.02" speed="15.90" harmonicMeanSpeed="15.89" length="5.00" nVehEntered="2"/>
    <interval begin="0.00" end="3600.00" id="302:19Din" nVehContrib="0" flow="0.00" occupancy="0.00" speed="-1.00" harmonicMeanSpeed="-1.00" length="-1.00" nVehEntered="0"/>
    <interval begin="0.00" end="3600.00" id="302:21Din" nVehContrib="8" flow="8.00" occupancy="0.07" speed="16.71" harmonicMeanSpeed="16.42" length="5.00" nVehEntered="8"/>
    <interval begin="0.00" end="3600.00" id="302:22Din" nVehContrib="0" flow="0.00" occupancy="0.00" speed="-1.00" harmonicMeanSpeed="-1.00" length="-1.00" nVehEntered="0"/>
    <interval begin="0.00" end="3600.00" id="302:24Din" nVehContrib="0" flow="0.00" occupancy="0.00" speed="-1.00" harmonicMeanSpeed="-1.00" length="-1.00" nVehEntered="0"/>
    <interval begin="0.00" end="3600.00" id="302:25Din" nVehContrib="9" flow="9.00" occupancy="4.99" speed="3.77" harmonicMeanSpeed="0.25" length="5.00" nVehEntered="9"/>
    <interval begin="0.00" end="3600.00" id="302:27Din" nVehContrib="2" flow="2.00" occupancy="0.01" speed="32.06" harmonicMeanSpeed="31.90" length="5.00" nVehEntered="2"/>
    <interval begin="0.00" end="3600.00" id="302:29Din" nVehContrib="6" flow="6.00" occupancy="0.71" speed="11.05" harmonicMeanSpeed="1.17" length="5.00" nVehEntered="6"/>
    <interval begin="0.00" end="3600.00" id="302:1Din" nVehContrib="6" flow="6.00" occupancy="0.04" speed="23.34" harmonicMeanSpeed="23.28" length="5.00" nVehEntered="7"/>
    <interval begin="0.00" end="3600.00" id="302:3Din" nVehContrib="1" flow="1.00" occupancy="0.03" speed="4.59" harmonicMeanSpeed="4.59" length="5.00" nVehEntered="1"/>
    <interval begin="0.00" end="3600.00" id="302:5Din" nVehContrib="1" flow="1.00" occupancy="0.01" speed="24.13" harmonicMeanSpeed="24.13" length="5.00" nVehEntered="1"/>
    <interval begin="0.00" end="3600.00" id="302:7Din" nVehContrib="13" flow="13.00" occupancy="0.08" speed="23.67" harmonicMeanSpeed="23.59" length="5.00" nVehEntered="13"/>
    <interval begin="0.00" end="3600.00" id="402:8Din" nVehContrib="31" flow="31.00" occupancy="1.66" speed="2.61" harmonicMeanSpeed="2.59" length="5.00" nVehEntered="31"/>
    <interval begin="0.00" end="3600.00" id="402:10Din" nVehContrib="0" flow="0.00" occupancy="0.00" speed="-1.00" harmonicMeanSpeed="-1.00" length="-1.00" nVehEntered="0"/>
    <interval begin="0.00" end="3600.00" id="402:12Din" nVehContrib="0" flow="0.00" occupancy="0.00" speed="-1.00" harmonicMeanSpeed="-1.00" length="-1.00" nVehEntered="0"/>
    <interval begin="0.00" end="3600.00" id="402:14Din" nVehContrib="6" flow="6.00" occupancy="0.07" speed="13.09" harmonicMeanSpeed="12.77" length="5.00" nVehEntered="6"/>
    <interval begin="0.00" end="3600.00" id="402:16Din" nVehContrib="0" flow="0.00" occupancy="0.00" speed="-1.00" harmonicMeanSpeed="-1.00" length="-1.00" nVehEntered="0"/>
    <interval begin="0.00" end="3600.00" id="402:18Din" nVehContrib="7" flow="7.00" occupancy="0.07" speed="15.31" harmonicMeanSpeed="14.72" length="5.00" nVehEntered="7"/>
    <interval begin="0.00" end="3600.00" id="402:1Din" nVehContrib="36" flow="36.00" occupancy="0.22" speed="22.71" harmonicMeanSpeed="22.52" length="5.00" nVehEntered="36"/>
    <interval begin="0.00" end="3600.00" id="402:3Din" nVehContrib="3" flow="3.00" occupancy="0.02" speed="27.04" harmonicMeanSpeed="26.98" length="5.00" nVehEntered="3"/>
    <interval begin="0.00" end="3600.00" id="402:5Din" nVehContrib="0" flow="0.00" occupancy="0.00" speed="-1.00" harmonicMeanSpeed="-1.00" length="-1.00" nVehEntered="0"/>
    <interval begin="0.00" end="3600.00" id="404:13Din" nVehContrib="27" flow="27.00" occupancy="0.19" speed="23.17" harmonicMeanSpeed="20.16" length="5.00" nVehEntered="27"/>
    <interval begin="0.00" end="3600.00" id="404:15Din" nVehContrib="3" flow="3.00" occupancy="0.03" speed="17.88" harmonicMeanSpeed="14.85" length="5.00" nVehEntered="3"/>
    <interval begin="0.00" end="3600.00" id="404:17Din" nVehContrib="4" flow="4.00" occupancy="0.10" speed="5.64" harmonicMeanSpeed="5.58" length="5.00" nVehEntered="4"/>
    <interval begin="0.00" end="3600.00" id="404:20Din" nVehContrib="9" flow="9.00" occupancy="0.05" speed="26.65" harmonicMeanSpeed="26.50" length="5.00" nVehEntered="9"/>
    <interval begin="0.00" end="3600.00" id="404:21Din" nVehContrib="0" flow="0.00" occupancy="0.00" speed="-1.00" harmonicMeanSpeed="-1.00" length="-1.00" nVehEntered="0"/>
    <interval begin="0.00" end="3600.00" id="404:23Din" nVehContrib="0" flow="0.00" occupancy="0.00" speed="-1.00" harmonicMeanSpeed="-1.00" length="-1.00" nVehEntered="0"/>
    <interval begin="0.00" end="3600.00" id="404:1Din" nVehContrib="13" flow="13.00" occupancy="0.07" speed="27.36" harmonicMeanSpeed="26.74" length="5.00" nVehEntered="13"/>
    <interval begin="0.00" end="3600.00" id="404:3Din" nVehContrib="8" flow="8.00" occupancy="0.04" speed="27.91" harmonicMeanSpeed="27.63" length="5.00" nVehEntered="8"/>
    <interval begin="0.00" end="3600.00" id="404:5Din" nVehContrib="5" flow="5.00" occupancy="0.03" speed="25.44" harmonicMeanSpeed="25.16" length="5.00" nVehEntered="5"/>
    <interval begin="0.00" end="3600.00" id="404:8Din" nVehContrib="28" flow="28.00" occupancy="0.16" speed="26.23" harmonicMeanSpeed="24.33" length="5.00" nVehEntered="28"/>
    <interval begin="0.00" end="3600.00" id="404:9Din" nVehContrib="4" flow="4.00" occupancy="0.02" speed="25.53" harmonicMeanSpeed="25.47" length="5.00" nVehEntered="4"/>
    <interval begin="0.00" end="3600.00" id="404:11Din" nVehContrib="4" flow="4.00" occupancy="0.02" speed="29.37" harmonicMeanSpeed="29.30" length="5.00" nVehEntered="4"/>
    <interval begin="0.00" end="3600.00" id="306:9Din" nVehContrib="15" flow="15.00" occupancy="0.83" speed="2.52" harmonicMeanSpeed="2.50" length="5.00" nVehEntered="15"/>
    <interval begin="0.00" end="3600.00" id="306:11Din" nVehContrib="0" flow="0.00" occupancy="0.00" speed="-1.00" harmonicMeanSpeed="-1.00" length="-1.00" nVehEntered="0"/>
    <interval begin="0.00" end="3600.00" id="306:13Din" nVehContrib="0" flow="0.00" occupancy="0.00" speed="-1.00" harmonicMeanSpeed="-1.00" length="-1.00" nVehEntered="0"/>
    <interval begin="0.00" end="3600.00" id="306:15Din" nVehContrib="16" flow="16.00" occupancy="0.90" speed="2.47" harmonicMeanSpeed="2.46" length="5.00" nVehEntered="16"/>
    <interval begin="0.00" end="3600.00" id="306:17Din" nVehContrib="0" flow="0.00" occupancy="0.00" speed="-1.00" harmonicMeanSpeed="-1.00" length="-1.00" nVehEntered="0"/>
    <interval begin="0.00" end="3600.00" id="306:19Din" nVehContrib="0" flow="0.00" occupancy="0.00" speed="-1.00" harmonicMeanSpeed="-1.00" length="-1.00" nVehEntered="0"/>
    <interval begin="0.00" end="3600.00" id="306:21Din" nVehContrib="0" flow="0.00" occupancy="0.00" speed="-1.00" harmonicMeanSpeed="-1.00" length="-1.00" nVehEntered="0"/>
    <interval begin="0.00" end="3600.00" id="306:1Din" nVehContrib="14" flow="14.00" occupancy="0.27" speed="7.41" harmonicMeanSpeed="7.35" length="5.00" nVehEntered="15"/>
    <interval begin="0.00" end="3600.00" id="306:3Din" nVehContrib="20" flow="20.00" occupancy="0.20" speed="15.87" harmonicMeanSpeed="13.87" length="5.00" nVehEntered="20"/>
    <interval begin="0.00" end="3600.00" id="306:5Din" nVehContrib="16" flow="16.00" occupancy="0.13" speed="17.17" harmonicMeanSpeed="17.13" length="5.00" nVehEntered="16"/>
    <interval begin="0.00" end="3600.00" id="306:7Din" nVehContrib="2" flow="2.00" occupancy="0.02" speed="16.15" harmonicMeanSpeed="16.14" length="5.00" nVehEntered="2"/>
    <interval begin="0.00" end="3600.00" id="306:27Din" nVehContrib="1" flow="1.00" occupancy="0.01" speed="14.74" harmonicMeanSpeed="14.74" length="5.00" nVehEntered="1"/>
    <interval begin="0.00" end="3600.00" id="306:29Din" nVehContrib="6" flow="6.00" occupancy="0.06" speed="18.54" harmonicMeanSpeed="13.50" length="5.00" nVehEntered="6"/>
    <interval begin="0.00" end="3600.00" id="306:31Din" nVehContrib="2" flow="2.00" occupancy="0.03" speed="11.39" harmonicMeanSpeed="11.10" length="5.00" nVehEntered="2"/>
    <interval begin="0.00" end="3600.00" id="306:23Din" nVehContrib="14" flow="14.00" occupancy="0.10" speed="24.91" harmonicMeanSpeed="19.21" length="5.00" nVehEntered="14"/>
    <interval begin="0.00" end="3600.00" id="306:25Din" nVehContrib="14" flow="14.00" occupancy="0.19" speed="11.90" harmonicMeanSpeed="10.12" length="5.00" nVehEntered="14"/>
    <interval begin="0.00" end="3600.00" id="velocity0" nVehContrib="5" flow="5.00" occupancy="0.03" speed="26.48" harmonicMeanSpeed="26.27" length="5.00" nVehEntered="5"/>
    <interval begin="0.00" end="3600.00" id="velocity1" nVehContrib="0" flow="0.00" occupancy="0.00" speed="-1.00" harmonicMeanSpeed="-1.00" length="-1.00" nVehEntered="0"/>
    <interval begin="0.00" end="3600.00" id="velocity2" nVehContrib="0" flow="0.00" occupancy="0.00" speed="-1.00" harmonicMeanSpeed="-1.00" length="-1.00" nVehEntered="0"/>
    <interval begin="3600.00" end="7200.00" id="601:1Din" nVehContrib="3" flow="3.00" occupancy="0.03" speed="21.41" harmonicMeanSpeed="16.40" length="5.00" nVehEntered="3"/>
    <interval begin="3600.00" end="7200.00" id="601:3Din" nVehContrib="2" flow="2.00" occupancy="0.02" speed="12.12" harmonicMeanSpeed="12.06" length="5.00" nVehEntered="2"/>
    <interval begin="3600.00" end="7200.00" id="601:9Din" nVehContrib="2" flow="2.00" occupancy="0.12" speed="2.42" harmonicMeanSpeed="2.42" length="5.00" nVehEntered="2"/>
    <interval begin="3600.00" end="7200.00" id="601:5Din" nVehContrib="0" flow="0.00" occupancy="0.00" speed="-1.00" harmonicMeanSpeed="-1.00" length="-1.00" nVehEntered="0"/>
    <interval begin="3600.00" end="7200.00" id="601:7Din" nVehContrib="0" flow="0.00" occupancy="0.00" speed="-1.00" harmonicMeanSpeed="-1.00" length="-1.00" nVehEntered="0"/>
    <interval begin="3600.00" end="7200.00" id="601:11Din" nVehContrib="4" flow="4.00" occupancy="0.22" speed="2.57" harmonicMeanSpeed="2.56" length="5.00" nVehEntered="4"/>
    <interval begin="3600.00" end="7200.00" id="601:13Din" nVehContrib="1" flow="1.00" occupancy="0.02" speed="7.02" harmonicMeanSpeed="7.02" length="5.00" nVehEntered="1"/>
    <interval begin="3600.00" end="7200.00" id="601:15Din" nVehContrib="1" flow="1.00" occupancy="0.01" speed="9.83" harmonicMeanSpeed="9.83" length="5.00" nVehEntered="1"/>
    <interval begin="3600.00" end="7200.00" id="601:17Din" nVehContrib="0" flow="0.00" occupancy="0.00" speed="-1.00" harmonicMeanSpeed="-1.00" length="-1.00" nVehEntered="0"/>
    <interval begin="3600.00" end="7200.00" id="502:19Din" nVehContrib="5" flow="5.00" occupancy="0.51" speed="2.45" harmonicMeanSpeed="2.44" length="5.00" nVehEntered="9"/>
    <interval begin="3600.00" end="7200.00" id="502:21Din" nVehContrib="4" flow="4.00" occupancy="0.12" speed="4.76" harmonicMeanSpeed="4.75" length="5.00" nVehEntered="4"/>
    <interval begin="3600.00" end="7200.00" id="502:23Din" nVehContrib="0" flow="0.00" occupancy="0.00" speed="-1.00" harmonicMeanSpeed="-1.00" length="-1.00" nVehEntered="0"/>
    <interval begin="3600.00" end="7200.00" id="502:17Din" nVehContrib="6" flow="6.00" occupancy="0.12" speed="7.22" harmonicMeanSpeed="7.15" length="5.00" nVehEntered="6"/>
    <interval begin="3600.00" end="7200.00" id="502:15Din" nVehContrib="18" flow="18.00" occupancy="0.30" speed="9.24" harmonicMeanSpeed="8.32" length="5.00" nVehEntered="18"/>
    <interval begin="3600.00" end="7200.00" id="502:13Din" nVehContrib="1" flow="1.00" occupancy="0.00" speed="29.27" harmonicMeanSpeed="29.27" length="5.00" nVehEntered="1"/>
    <interval begin="3600.00" end="7200.00" id="502:11Din" nVehContrib="5" flow="5.00" occupancy="0.04" speed="21.53" harmonicMeanSpeed="16.69" length="5.00" nVehEntered="5"/>
    <interval begin="3600.00" end="7200.00" id="502:1Din" nVehContrib="8" flow="8.00" occupancy="0.07" speed="19.02" harmonicMeanSpeed="15.99" length="5.00" nVehEntered="8"/>
    <interval begin="3600.00" end="7200.00" id="502:3Din" nVehContrib="1" flow="1.00" occupancy="0.00" speed="31.71" harmonicMeanSpeed="31.71" length="5.00" nVehEntered="1"/>
    <interval begin="3600.00" end="7200.00" id="502:5Din" nVehContrib="0" flow="0.00" occupancy="0.00" speed="-1.00" harmonicMeanSpeed="-1.00" length="-1.00" nVehEntered="0"/>
    <interval begin="3600.00" end="7200.00" id="502:7Din" nVehContrib="5" flow="5.00" occupancy="0.26" speed="2.64" harmonicMeanSpeed="2.63" length="5.00" nVehEntered="5"/>
    <interval begin="3600.00" end="7200.00" id="502:9Din" nVehContrib="2" flow="2.00" occupancy="0.05" speed="5.44" harmonicMeanSpeed="5.44" length="5.00" nVehEntered="2"/>
    <interval begin="3600.00" end="7200.00" id="302:9Din" nVehContrib="4" flow="4.00" occupancy="0.07" speed="7.89" harmonicMeanSpeed="7.79" length="5.00" nVehEntered="4"/>
    <interval begin="3600.00" end="7200.00" id="302:11Din" nVehContrib="2" flow="2.00" occupancy="0.04" speed="6.99" harmonicMeanSpeed="6.86" length="5.00" nVehEntered="2"/>
    <interval begin="3600.00" end="7200.00" id="302:13Din" nVehContrib="1" flow="1.00" occupancy="0.01" speed="27.67" harmonicMeanSpeed="27.67" length="5.00" nVehEntered="1"/>
    <interval begin="3600.00" end="7200.00" id="302:15Din" nVehContrib="1" flow="1.00" occupancy="0.00" speed="30.44" harmonicMeanSpeed="30.44" length="5.00" nVehEntered="1"/>
    <interval begin="3600.00" end="7200.00" id="302:17Din" nVehContrib="3" flow="3.00" occupancy="0.02" speed="18.76" harmonicMeanSpeed="18.63" length="5.00" nVehEntered="3"/>
    <interval begin="3600.00" end="7200.00" id="302:19Din" nVehContrib="1" flow="1.00" occupancy="0.01" speed="15.29" harmonicMeanSpeed="15.29" length="5.00" nVehEntered="1"/>
    <interval begin="3600.00" end="7200.00" id="302:21Din" nVehContrib="7" flow="7.00" occupancy="0.06" speed="17.19" harmonicMeanSpeed="16.78" length="5.00" nVehEntered="7"/>
    <interval begin="3600.00" end="7200.00" id="302:22Din" nVehContrib="0" flow="0.00" occupancy="0.00" speed="-1.00" harmonicMeanSpeed="-1.00" length="-1.00" nVehEntered="0"/>
    <interval begin="3600.00" end="7200.00" id="302:24Din" nVehContrib="0" flow="0.00" occupancy="0.00" speed="-1.00" harmonicMeanSpeed="-1.00" length="-1.00" nVehEntered="0"/>
    <interval begin="3600.00" end="7200.00" id="302:25Din" nVehContrib="6" flow="6.00" occupancy="4.19" speed="0.64" harmonicMeanSpeed="0.20" length="5.00" nVehEntered="6"/>
    <interval begin="3600.00" end="7200.00" id="302:27Din" nVehContrib="1" flow="1.00" occupancy="0.01" speed="27.26" harmonicMeanSpeed="27.26" length="5.00" nVehEntered="1"/>
    <interval begin="3600.00" end="7200.00" id="302:29Din" nVehContrib="2" flow="2.00" occupancy="0.55" speed="7.24" harmonicMeanSpeed="0.50" length="5.00" nVehEntered="2"/>
    <interval begin="3600.00" end="7200.00" id="302:1Din" nVehContrib="4" flow="4.00" occupancy="0.02" speed="26.47" harmonicMeanSpeed="26.29" length="5.00" nVehEntered="4"/>
    <interval begin="3600.00" end="7200.00" id="302:3Din" nVehContrib="0" flow="0.00" occupancy="0.00" speed="-1.00" harmonicMeanSpeed="-1.00" length="-1.00" nVehEntered="0"/>
    <interval begin="3600.00" end="7200.00" id="302:5Din" nVehContrib="1" flow="1.00" occupancy="0.01" speed="23.35" harmonicMeanSpeed="23.35" length="5.00" nVehEntered="1"/>
    <interval begin="3600.00" end="7200.00" id="302:7Din" nVehContrib="4" flow="4.00" occupancy="0.02" speed="25.70" harmonicMeanSpeed="25.57" length="5.00" nVehEntered="4"/>
    <interval begin="3600.00" end="7200.00" id="402:8Din" nVehContrib="8" flow="8.00" occupancy="0.43" speed="2.60" harmonicMeanSpeed="2.59" length="5.00" nVehEntered="8"/>
    <interval begin="3600.00" end="7200.00" id="402:10Din" nVehContrib="0" flow="0.00" occupancy="0.00" speed="-1.00" harmonicMeanSpeed="-1.00" length="-1.00" nVehEntered="0"/>
    <interval begin="3600.00" end="7200.00" id="402:12Din" nVehContrib="0" flow="0.00" occupancy="0.00" speed="-1.00" harmonicMeanSpeed="-1.00" length="-1.00" nVehEntered="0"/>
    <interval begin="3600.00" end="7200.00" id="402:14Din" nVehContrib="0" flow="0.00" occupancy="0.00" speed="-1.00" harmonicMeanSpeed="-1.00" length="-1.00" nVehEntered="0"/>
    <interval begin="3600.00" end="7200.00" id="402:16Din" nVehContrib="0" flow="0.00" occupancy="0.00" speed="-1.00" harmonicMeanSpeed="-1.00" length="-1.00" nVehEntered="0"/>
    <interval begin="3600.00" end="7200.00" id="402:18Din" nVehContrib="1" flow="1.00" occupancy="0.01" speed="10.77" harmonicMeanSpeed="10.77" length="5.00" nVehEntered="1"/>
    <interval begin="3600.00" end="7200.00" id="402:1Din" nVehContrib="20" flow="20.00" occupancy="0.12" speed="22.92" harmonicMeanSpeed="22.72" length="5.00" nVehEntered="20"/>
    <interval begin="3600.00" end="7200.00" id="402:3Din" nVehContrib="2" flow="2.00" occupancy="0.01" speed="27.10" harmonicMeanSpeed="27.09" length="5.00" nVehEntered="2"/>
    <interval begin="3600.00" end="7200.00" id="402:5Din" nVehContrib="0" flow="0.00" occupancy="0.00" speed="-1.00" harmonicMeanSpeed="-1.00" length="-1.00" nVehEntered="0"/>
    <interval begin="3600.00" end="7200.00" id="404:13Din" nVehContrib="7" flow="7.00" occupancy="0.06" speed="18.10" harmonicMeanSpeed="15.26" length="5.00" nVehEntered="7"/>
    <interval begin="3600.00" end="7200.00" id="404:15Din" nVehContrib="1" flow="1.00" occupancy="0.01" speed="9.47" harmonicMeanSpeed="9.47" length="5.00" nVehEntered="1"/>
    <interval begin="3600.00" end="7200.00" id="404:17Din" nVehContrib="3" flow="3.00" occupancy="0.07" speed="6.23" harmonicMeanSpeed="6.19" length="5.00" nVehEntered="3"/>
    <interval begin="3600.00" end="7200.00" id="404:20Din" nVehContrib="1" flow="1.00" occupancy="0.01" speed="27.61" harmonicMeanSpeed="27.61" length="5.00" nVehEntered="1"/>
    <interval begin="3600.00" end="7200.00" id="404:21Din" nVehContrib="0" flow="0.00" occupancy="0.00" speed="-1.00" harmonicMeanSpeed="-1.00" length="-1.00" nVehEntered="0"/>
    <interval begin="3600.00" end="7200.00" id="404:23Din" nVehContrib="0" flow="0.00" occupancy="0.00" speed="-1.00" harmonicMeanSpeed="-1.00" length="-1.00" nVehEntered="0"/>
    <interval begin="3600.00" end="7200.00" id="404:1Din" nVehContrib="6" flow="6.00" occupancy="0.03" speed="27.93" harmonicMeanSpeed="27.60" length="5.00" nVehEntered="6"/>
    <interval begin="3600.00" end="7200.00" id="404:3Din" nVehContrib="4" flow="4.00" occupancy="0.02" speed="26.65" harmonicMeanSpeed="26.64" length="5.00" nVehEntered="4"/>
    <interval begin="3600.00" end="7200.00" id="404:5Din" nVehContrib="3" flow="3.00" occupancy="0.02" speed="23.87" harmonicMeanSpeed="23.84" length="5.00" nVehEntered="3"/>
    <interval begin="3600.00" end="7200.00" id="404:8Din" nVehContrib="13" flow="13.00" occupancy="0.09" speed="24.07" harmonicMeanSpeed="19.80" length="5.00" nVehEntered="13"/>
    <interval begin="3600.00" end="7200.00" id="404:9Din" nVehContrib="0" flow="0.00" occupancy="0.00" speed="-1.00" harmonicMeanSpeed="-1.00" length="-1.00" nVehEntered="0"/>
    <interval begin="3600.00" end="7200.00" id="404:11Din" nVehContrib="3" flow="3.00" occupancy="0.01" speed="31.34" harmonicMeanSpeed="31.28" length="5.00" nVehEntered="3"/>
    <interval begin="3600.00" end="7200.00" id="306:9Din" nVehContrib="8" flow="8.00" occupancy="0.43" speed="2.58" harmonicMeanSpeed="2.57" length="5.00" nVehEntered="8"/>
    <interval begin="3600.00" end="7200.00" id="306:11Din" nVehContrib="0" flow="0.00" occupancy="0.00" speed="-1.00" harmonicMeanSpeed="-1.00" length="-1.00" nVehEntered="0"/>
    <interval begin="3600.00" end="7200.00" id="306:13Din" nVehContrib="0" flow="0.00" occupancy="0.00" speed="-1.00" harmonicMeanSpeed="-1.00" length="-1.00" nVehEntered="0"/>
    <interval begin="3600.00" end="7200.00" id="306:15Din" nVehContrib="7" flow="7.00" occupancy="0.39" speed="2.47" harmonicMeanSpeed="2.46" length="5.00" nVehEntered="7"/>
    <interval begin="3600.00" end="7200.00" id="306:17Din" nVehContrib="0" flow="0.00" occupancy="0.00" speed="-1.00" harmonicMeanSpeed="-1.00" length="-1.00" nVehEntered="0"/>
    <interval begin="3600.00" end="7200.00" id="306:19Din" nVehContrib="0" flow="0.00" occupancy="0.00" speed="-1.00" harmonicMeanSpeed="-1.00" length="-1.00" nVehEntered="0"/>
    <interval begin="3600.00" end="7200.00" id="306:21Din" nVehContrib="0" flow="0.00" occupancy="0.00" speed="-1.00" harmonicMeanSpeed="-1.00" length="-1.00" nVehEntered="0"/>
    <interval begin="3600.00" end="7200.00" id="306:1Din" nVehContrib="6" flow="6.00" occupancy="0.12" speed="7.18" harmonicMeanSpeed="7.09" length="5.00" nVehEntered="6"/>
    <interval begin="3600.00" end="7200.00" id="306:3Din" nVehContrib="6" flow="6.00" occupancy="0.05" speed="17.13" harmonicMeanSpeed="17.05" length="5.00" nVehEntered="6"/>
    <interval begin="3600.00" end="7200.00" id="306:5Din" nVehContrib="7" flow="7.00" occupancy="0.06" speed="16.66" harmonicMeanSpeed="16.62" length="5.00" nVehEntered="7"/>
    <interval begin="3600.00" end="7200.00" id="306:7Din" nVehContrib="2" flow="2.00" occupancy="0.02" speed="17.81" harmonicMeanSpeed="17.78" length="5.00" nVehEntered="2"/>
    <interval begin="3600.00" end="7200.00" id="306:27Din" nVehContrib="2" flow="2.00" occupancy="0.03" speed="11.21" harmonicMeanSpeed="10.93" length="5.00" nVehEntered="2"/>
    <interval begin="3600.00" end="7200.00" id="306:29Din" nVehContrib="3" flow="3.00" occupancy="0.04" speed="9.54" harmonicMeanSpeed="9.47" length="5.00" nVehEntered="3"/>
    <interval begin="3600.00" end="7200.00" id="306:31Din" nVehContrib="1" flow="1.00" occupancy="0.01" speed="9.73" harmonicMeanSpeed="9.73" length="5.00" nVehEntered="1"/>
    <interval begin="3600.00" end="7200.00" id="306:23Din" nVehContrib="8" flow="8.00" occupancy="0.12" speed="14.25" harmonicMeanSpeed="9.20" length="5.00" nVehEntered="8"/>
    <interval begin="3600.00" end="7200.00" id="306:25Din" nVehContrib="4" flow="4.00" occupancy="0.07" speed="8.34" harmonicMeanSpeed="8.00" length="5.00" nVehEntered="4"/>
    <interval begin="3600.00" end="7200.00" id="velocity0" nVehContrib="3" flow="3.00" occupancy="0.02" speed="28.07" harmonicMeanSpeed="27.75" length="5.00" nVehEntered="3"/>
    <interval begin="3600.00" end="7200.00" id="velocity1" nVehContrib="0" flow="0.00" occupancy="0.00" speed="-1.00" harmonicMeanSpeed="-1.00" length="-1.00" nVehEntered="0"/>
    <interval begin="3600.00" end="7200.00" id="velocity2" nVehContrib="1" flow="1.00" occupancy="0.01" speed="26.97" harmonicMeanSpeed="26.97" length="5.00" nVehEntered="1"/>
    <interval begin="7200.00" end="10800.00" id="601:1Din" nVehContrib="3" flow="3.00" occupancy="0.01" speed="29.69" harmonicMeanSpeed="29.50" length="5.00" nVehEntered="3"/>
    <interval begin="7200.00" end="10800.00" id="601:3Din" nVehContrib="3" flow="3.00" occupancy="0.04" speed="11.27" harmonicMeanSpeed="11.15" length="5.00" nVehEntered="3"/>
    <interval begin="7200.00" end="10800.00" id="601:9Din" nVehContrib="2" flow="2.00" occupancy="0.12" speed="2.40" harmonicMeanSpeed="2.40" length="5.00" nVehEntered="2"/>
    <interval begin="7200.00" end="10800.00" id="601:5Din" nVehContrib="0" flow="0.00" occupancy="0.00" speed="-1.00" harmonicMeanSpeed="-1.00" length="-1.00" nVehEntered="0"/>
    <interval begin="7200.00" end="10800.00" id="601:7Din" nVehContrib="1" flow="1.00" occupancy="0.03" speed="5.18" harmonicMeanSpeed="5.18" length="5.00" nVehEntered="1"/>
    <interval begin="7200.00" end="10800.00" id="601:11Din" nVehContrib="1" flow="1.00" occupancy="0.05" speed="2.55" harmonicMeanSpeed="2.55" length="5.00" nVehEntered="1"/>
    <interval begin="7200.00" end="10800.00" id="601:13Din" nVehContrib="2" flow="2.00" occupancy="0.04" speed="6.84" harmonicMeanSpeed="6.77" length="5.00" nVehEntered="2"/>
    <interval begin="7200.00" end="10800.00" id="601:15Din" nVehContrib="0" flow="0.00" occupancy="0.00" speed="-1.00" harmonicMeanSpeed="-1.00" length="-1.00" nVehEntered="0"/>
    <interval begin="7200.00" end="10800.00" id="601:17Din" nVehContrib="1" flow="1.00" occupancy="0.02" speed="8.27" harmonicMeanSpeed="8.27" length="5.00" nVehEntered="1"/>