<?xml version="1.0" encoding="UTF-8"?>

<!-- generated on 2022-05-13 17:40:46 by Eclipse SUMO sumo Version 1.10.0
<configuration xmlns:xsi="http://www.w3.org/2001/XMLSchema-instance" xsi:noNamespaceSchemaLocation="http://sumo.dlr.de/xsd/sumoConfiguration.xsd">

    <input>
        <net-file value="/home/tedy/Sumo/myscript/simulation/updated.net.xml"/>
        <route-files value="/home/tedy/Sumo/Data/Out/wcfg/10/dijkstra/wcfgi10Wadijkstrag1t05Dua.xml"/>
        <additional-files value="/home/tedy/Sumo/myscript/simulation/additional.xml"/>
    </input>

    <output>
        <statistic-output value="/home/tedy/Sumo/myscript/simulation/stat.xml"/>
    </output>

    <time>
        <end value="86400"/>
    </time>

    <processing>
        <ignore-route-errors value="true"/>
        <collision.action value="teleport"/>
        <time-to-teleport value="3600"/>
    </processing>

    <routing>
        <device.rerouting.adaptation-steps value="18"/>
        <device.rerouting.adaptation-interval value="10"/>
    </routing>

    <report>
        <verbose value="true"/>
        <log value="/home/tedy/Sumo/myscript/simulation/log.xml"/>
        <duration-log.statistics value="true"/>
    </report>

    <gui_only>
        <gui-settings-file value="/home/tedy/Sumo/myscript/simulation/osm.view.xml"/>
    </gui_only>

</configuration>
-->

<detector xmlns:xsi="http://www.w3.org/2001/XMLSchema-instance" xsi:noNamespaceSchemaLocation="http://sumo.dlr.de/xsd/det_e1_file.xsd">
    <interval begin="0.00" end="3600.00" id="601:1Din" nVehContrib="2" flow="2.00" occupancy="0.03" speed="9.54" harmonicMeanSpeed="9.54" length="5.00" nVehEntered="2"/>
    <interval begin="0.00" end="3600.00" id="601:3Din" nVehContrib="6" flow="6.00" occupancy="0.07" speed="11.63" harmonicMeanSpeed="11.62" length="5.00" nVehEntered="6"/>
    <interval begin="0.00" end="3600.00" id="601:9Din" nVehContrib="1" flow="1.00" occupancy="0.05" speed="2.89" harmonicMeanSpeed="2.89" length="5.00" nVehEntered="1"/>
    <interval begin="0.00" end="3600.00" id="601:5Din" nVehContrib="0" flow="0.00" occupancy="0.00" speed="-1.00" harmonicMeanSpeed="-1.00" length="-1.00" nVehEntered="0"/>
    <interval begin="0.00" end="3600.00" id="601:7Din" nVehContrib="1" flow="1.00" occupancy="0.02" speed="6.01" harmonicMeanSpeed="6.01" length="5.00" nVehEntered="1"/>
    <interval begin="0.00" end="3600.00" id="601:11Din" nVehContrib="9" flow="9.00" occupancy="0.46" speed="2.77" harmonicMeanSpeed="2.71" length="5.00" nVehEntered="9"/>
    <interval begin="0.00" end="3600.00" id="601:13Din" nVehContrib="3" flow="3.00" occupancy="0.05" speed="8.00" harmonicMeanSpeed="7.87" length="5.00" nVehEntered="3"/>
    <interval begin="0.00" end="3600.00" id="601:15Din" nVehContrib="0" flow="0.00" occupancy="0.00" speed="-1.00" harmonicMeanSpeed="-1.00" length="-1.00" nVehEntered="0"/>
    <interval begin="0.00" end="3600.00" id="601:17Din" nVehContrib="0" flow="0.00" occupancy="0.00" speed="-1.00" harmonicMeanSpeed="-1.00" length="-1.00" nVehEntered="0"/>
    <interval begin="0.00" end="3600.00" id="502:19Din" nVehContrib="14" flow="14.00" occupancy="0.81" speed="2.51" harmonicMeanSpeed="2.39" length="5.00" nVehEntered="14"/>
    <interval begin="0.00" end="3600.00" id="502:21Din" nVehContrib="0" flow="0.00" occupancy="0.00" speed="-1.00" harmonicMeanSpeed="-1.00" length="-1.00" nVehEntered="0"/>
    <interval begin="0.00" end="3600.00" id="502:23Din" nVehContrib="0" flow="0.00" occupancy="0.00" speed="-1.00" harmonicMeanSpeed="-1.00" length="-1.00" nVehEntered="0"/>
    <interval begin="0.00" end="3600.00" id="502:17Din" nVehContrib="13" flow="13.00" occupancy="0.23" speed="8.05" harmonicMeanSpeed="8.01" length="5.00" nVehEntered="13"/>
    <interval begin="0.00" end="3600.00" id="502:15Din" nVehContrib="45" flow="45.00" occupancy="0.69" speed="9.13" harmonicMeanSpeed="9.00" length="5.00" nVehEntered="45"/>
    <interval begin="0.00" end="3600.00" id="502:13Din" nVehContrib="0" flow="0.00" occupancy="0.00" speed="-1.00" harmonicMeanSpeed="-1.00" length="-1.00" nVehEntered="0"/>
    <interval begin="0.00" end="3600.00" id="502:11Din" nVehContrib="8" flow="8.00" occupancy="0.08" speed="17.31" harmonicMeanSpeed="14.21" length="5.00" nVehEntered="8"/>
    <interval begin="0.00" end="3600.00" id="502:1Din" nVehContrib="8" flow="8.00" occupancy="0.05" speed="22.76" harmonicMeanSpeed="20.48" length="5.00" nVehEntered="8"/>
    <interval begin="0.00" end="3600.00" id="502:3Din" nVehContrib="1" flow="1.00" occupancy="0.01" speed="25.98" harmonicMeanSpeed="25.98" length="5.00" nVehEntered="1"/>
    <interval begin="0.00" end="3600.00" id="502:5Din" nVehContrib="0" flow="0.00" occupancy="0.00" speed="-1.00" harmonicMeanSpeed="-1.00" length="-1.00" nVehEntered="0"/>
    <interval begin="0.00" end="3600.00" id="502:7Din" nVehContrib="14" flow="14.00" occupancy="0.73" speed="2.74" harmonicMeanSpeed="2.67" length="5.00" nVehEntered="14"/>
    <interval begin="0.00" end="3600.00" id="502:9Din" nVehContrib="1" flow="1.00" occupancy="0.02" speed="5.91" harmonicMeanSpeed="5.91" length="5.00" nVehEntered="1"/>
    <interval begin="0.00" end="3600.00" id="302:9Din" nVehContrib="6" flow="6.00" occupancy="0.10" speed="8.32" harmonicMeanSpeed="8.12" length="5.00" nVehEntered="6"/>
    <interval begin="0.00" end="3600.00" id="302:11Din" nVehContrib="4" flow="4.00" occupancy="0.05" speed="14.85" harmonicMeanSpeed="12.32" length="5.00" nVehEntered="4"/>
    <interval begin="0.00" end="3600.00" id="302:13Din" nVehContrib="2" flow="2.00" occupancy="0.01" speed="29.43" harmonicMeanSpeed="29.40" length="5.00" nVehEntered="2"/>
    <interval begin="0.00" end="3600.00" id="302:15Din" nVehContrib="0" flow="0.00" occupancy="0.00" speed="-1.00" harmonicMeanSpeed="-1.00" length="-1.00" nVehEntered="0"/>
    <interval begin="0.00" end="3600.00" id="302:17Din" nVehContrib="1" flow="1.00" occupancy="0.01" speed="18.90" harmonicMeanSpeed="18.90" length="5.00" nVehEntered="1"/>
    <interval begin="0.00" end="3600.00" id="302:19Din" nVehContrib="0" flow="0.00" occupancy="0.00" speed="-1.00" harmonicMeanSpeed="-1.00" length="-1.00" nVehEntered="0"/>
    <interval begin="0.00" end="3600.00" id="302:21Din" nVehContrib="5" flow="5.00" occupancy="0.04" speed="19.73" harmonicMeanSpeed="19.69" length="5.00" nVehEntered="5"/>
    <interval begin="0.00" end="3600.00" id="302:22Din" nVehContrib="0" flow="0.00" occupancy="0.00" speed="-1.00" harmonicMeanSpeed="-1.00" length="-1.00" nVehEntered="0"/>
    <interval begin="0.00" end="3600.00" id="302:24Din" nVehContrib="0" flow="0.00" occupancy="0.00" speed="-1.00" harmonicMeanSpeed="-1.00" length="-1.00" nVehEntered="0"/>
    <interval begin="0.00" end="3600.00" id="302:25Din" nVehContrib="3" flow="3.00" occupancy="3.11" speed="2.19" harmonicMeanSpeed="0.13" length="5.00" nVehEntered="3"/>
    <interval begin="0.00" end="3600.00" id="302:27Din" nVehContrib="6" flow="6.00" occupancy="0.19" speed="12.01" harmonicMeanSpeed="4.31" length="5.00" nVehEntered="6"/>
    <interval begin="0.00" end="3600.00" id="302:29Din" nVehContrib="4" flow="4.00" occupancy="3.60" speed="0.29" harmonicMeanSpeed="0.15" length="5.00" nVehEntered="4"/>
    <interval begin="0.00" end="3600.00" id="302:1Din" nVehContrib="6" flow="6.00" occupancy="0.03" speed="25.33" harmonicMeanSpeed="24.97" length="5.00" nVehEntered="6"/>
    <interval begin="0.00" end="3600.00" id="302:3Din" nVehContrib="0" flow="0.00" occupancy="0.00" speed="-1.00" harmonicMeanSpeed="-1.00" length="-1.00" nVehEntered="0"/>
    <interval begin="0.00" end="3600.00" id="302:5Din" nVehContrib="0" flow="0.00" occupancy="0.00" speed="-1.00" harmonicMeanSpeed="-1.00" length="-1.00" nVehEntered="0"/>
    <interval begin="0.00" end="3600.00" id="302:7Din" nVehContrib="12" flow="12.00" occupancy="0.07" speed="24.43" harmonicMeanSpeed="24.03" length="5.00" nVehEntered="12"/>
    <interval begin="0.00" end="3600.00" id="402:8Din" nVehContrib="28" flow="28.00" occupancy="1.43" speed="2.78" harmonicMeanSpeed="2.72" length="5.00" nVehEntered="28"/>
    <interval begin="0.00" end="3600.00" id="402:10Din" nVehContrib="0" flow="0.00" occupancy="0.00" speed="-1.00" harmonicMeanSpeed="-1.00" length="-1.00" nVehEntered="0"/>
    <interval begin="0.00" end="3600.00" id="402:12Din" nVehContrib="0" flow="0.00" occupancy="0.00" speed="-1.00" harmonicMeanSpeed="-1.00" length="-1.00" nVehEntered="0"/>
    <interval begin="0.00" end="3600.00" id="402:14Din" nVehContrib="3" flow="3.00" occupancy="0.03" speed="16.23" harmonicMeanSpeed="16.12" length="5.00" nVehEntered="3"/>
    <interval begin="0.00" end="3600.00" id="402:16Din" nVehContrib="0" flow="0.00" occupancy="0.00" speed="-1.00" harmonicMeanSpeed="-1.00" length="-1.00" nVehEntered="0"/>
    <interval begin="0.00" end="3600.00" id="402:18Din" nVehContrib="6" flow="6.00" occupancy="0.05" speed="16.34" harmonicMeanSpeed="16.28" length="5.00" nVehEntered="6"/>
    <interval begin="0.00" end="3600.00" id="402:1Din" nVehContrib="26" flow="26.00" occupancy="0.18" speed="21.37" harmonicMeanSpeed="20.54" length="5.00" nVehEntered="26"/>
    <interval begin="0.00" end="3600.00" id="402:3Din" nVehContrib="7" flow="7.00" occupancy="0.04" speed="26.68" harmonicMeanSpeed="26.42" length="5.00" nVehEntered="7"/>
    <interval begin="0.00" end="3600.00" id="402:5Din" nVehContrib="2" flow="2.00" occupancy="0.01" speed="29.83" harmonicMeanSpeed="29.83" length="5.00" nVehEntered="2"/>
    <interval begin="0.00" end="3600.00" id="404:13Din" nVehContrib="17" flow="17.00" occupancy="0.15" speed="18.98" harmonicMeanSpeed="15.28" length="5.00" nVehEntered="17"/>
    <interval begin="0.00" end="3600.00" id="404:15Din" nVehContrib="10" flow="10.00" occupancy="0.09" speed="18.67" harmonicMeanSpeed="15.35" length="5.00" nVehEntered="10"/>
    <interval begin="0.00" end="3600.00" id="404:17Din" nVehContrib="2" flow="2.00" occupancy="0.04" speed="6.87" harmonicMeanSpeed="6.87" length="5.00" nVehEntered="2"/>
    <interval begin="0.00" end="3600.00" id="404:20Din" nVehContrib="7" flow="7.00" occupancy="0.04" speed="26.90" harmonicMeanSpeed="26.63" length="5.00" nVehEntered="7"/>
    <interval begin="0.00" end="3600.00" id="404:21Din" nVehContrib="0" flow="0.00" occupancy="0.00" speed="-1.00" harmonicMeanSpeed="-1.00" length="-1.00" nVehEntered="0"/>
    <interval begin="0.00" end="3600.00" id="404:23Din" nVehContrib="1" flow="1.00" occupancy="0.00" speed="31.19" harmonicMeanSpeed="31.19" length="5.00" nVehEntered="1"/>
    <interval begin="0.00" end="3600.00" id="404:1Din" nVehContrib="9" flow="9.00" occupancy="0.05" speed="27.88" harmonicMeanSpeed="27.61" length="5.00" nVehEntered="9"/>
    <interval begin="0.00" end="3600.00" id="404:3Din" nVehContrib="9" flow="9.00" occupancy="0.04" speed="29.08" harmonicMeanSpeed="29.06" length="5.00" nVehEntered="9"/>
    <interval begin="0.00" end="3600.00" id="404:5Din" nVehContrib="3" flow="3.00" occupancy="0.02" speed="24.88" harmonicMeanSpeed="24.73" length="5.00" nVehEntered="3"/>
    <interval begin="0.00" end="3600.00" id="404:8Din" nVehContrib="22" flow="22.00" occupancy="0.11" speed="28.62" harmonicMeanSpeed="28.34" length="5.00" nVehEntered="22"/>
    <interval begin="0.00" end="3600.00" id="404:9Din" nVehContrib="4" flow="4.00" occupancy="0.02" speed="26.55" harmonicMeanSpeed="26.46" length="5.00" nVehEntered="4"/>
    <interval begin="0.00" end="3600.00" id="404:11Din" nVehContrib="2" flow="2.00" occupancy="0.01" speed="30.96" harmonicMeanSpeed="30.96" length="5.00" nVehEntered="2"/>
    <interval begin="0.00" end="3600.00" id="306:9Din" nVehContrib="11" flow="11.00" occupancy="0.64" speed="2.50" harmonicMeanSpeed="2.39" length="5.00" nVehEntered="11"/>
    <interval begin="0.00" end="3600.00" id="306:11Din" nVehContrib="0" flow="0.00" occupancy="0.00" speed="-1.00" harmonicMeanSpeed="-1.00" length="-1.00" nVehEntered="0"/>
    <interval begin="0.00" end="3600.00" id="306:13Din" nVehContrib="0" flow="0.00" occupancy="0.00" speed="-1.00" harmonicMeanSpeed="-1.00" length="-1.00" nVehEntered="0"/>
    <interval begin="0.00" end="3600.00" id="306:15Din" nVehContrib="12" flow="12.00" occupancy="0.69" speed="2.54" harmonicMeanSpeed="2.42" length="5.00" nVehEntered="12"/>
    <interval begin="0.00" end="3600.00" id="306:17Din" nVehContrib="0" flow="0.00" occupancy="0.00" speed="-1.00" harmonicMeanSpeed="-1.00" length="-1.00" nVehEntered="0"/>
    <interval begin="0.00" end="3600.00" id="306:19Din" nVehContrib="0" flow="0.00" occupancy="0.00" speed="-1.00" harmonicMeanSpeed="-1.00" length="-1.00" nVehEntered="0"/>
    <interval begin="0.00" end="3600.00" id="306:21Din" nVehContrib="0" flow="0.00" occupancy="0.00" speed="-1.00" harmonicMeanSpeed="-1.00" length="-1.00" nVehEntered="0"/>
    <interval begin="0.00" end="3600.00" id="306:1Din" nVehContrib="13" flow="13.00" occupancy="0.22" speed="8.12" harmonicMeanSpeed="8.08" length="5.00" nVehEntered="13"/>
    <interval begin="0.00" end="3600.00" id="306:3Din" nVehContrib="15" flow="15.00" occupancy="0.10" speed="20.76" harmonicMeanSpeed="20.70" length="5.00" nVehEntered="15"/>
    <interval begin="0.00" end="3600.00" id="306:5Din" nVehContrib="14" flow="14.00" occupancy="0.09" speed="21.06" harmonicMeanSpeed="21.01" length="5.00" nVehEntered="14"/>
    <interval begin="0.00" end="3600.00" id="306:7Din" nVehContrib="3" flow="3.00" occupancy="0.02" speed="20.17" harmonicMeanSpeed="20.16" length="5.00" nVehEntered="3"/>
    <interval begin="0.00" end="3600.00" id="306:27Din" nVehContrib="1" flow="1.00" occupancy="0.01" speed="11.94" harmonicMeanSpeed="11.94" length="5.00" nVehEntered="1"/>
    <interval begin="0.00" end="3600.00" id="306:29Din" nVehContrib="0" flow="0.00" occupancy="0.00" speed="-1.00" harmonicMeanSpeed="-1.00" length="-1.00" nVehEntered="0"/>
    <interval begin="0.00" end="3600.00" id="306:31Din" nVehContrib="1" flow="1.00" occupancy="0.01" speed="14.08" harmonicMeanSpeed="14.08" length="5.00" nVehEntered="1"/>
    <interval begin="0.00" end="3600.00" id="306:23Din" nVehContrib="10" flow="10.00" occupancy="0.05" speed="29.44" harmonicMeanSpeed="29.11" length="5.00" nVehEntered="10"/>
    <interval begin="0.00" end="3600.00" id="306:25Din" nVehContrib="11" flow="11.00" occupancy="0.11" speed="17.30" harmonicMeanSpeed="13.82" length="5.00" nVehEntered="11"/>
    <interval begin="0.00" end="3600.00" id="velocity0" nVehContrib="3" flow="3.00" occupancy="0.01" speed="29.84" harmonicMeanSpeed="29.70" length="5.00" nVehEntered="3"/>
    <interval begin="0.00" end="3600.00" id="velocity1" nVehContrib="0" flow="0.00" occupancy="0.00" speed="-1.00" harmonicMeanSpeed="-1.00" length="-1.00" nVehEntered="0"/>
    <interval begin="0.00" end="3600.00" id="velocity2" nVehContrib="0" flow="0.00" occupancy="0.00" speed="-1.00" harmonicMeanSpeed="-1.00" length="-1.00" nVehEntered="0"/>
    <interval begin="3600.00" end="7200.00" id="601:1Din" nVehContrib="2" flow="2.00" occupancy="0.03" speed="9.54" harmonicMeanSpeed="9.52" length="5.00" nVehEntered="2"/>
    <interval begin="3600.00" end="7200.00" id="601:3Din" nVehContrib="2" flow="2.00" occupancy="0.02" speed="11.36" harmonicMeanSpeed="11.36" length="5.00" nVehEntered="2"/>
    <interval begin="3600.00" end="7200.00" id="601:9Din" nVehContrib="0" flow="0.00" occupancy="0.00" speed="-1.00" harmonicMeanSpeed="-1.00" length="-1.00" nVehEntered="0"/>
    <interval begin="3600.00" end="7200.00" id="601:5Din" nVehContrib="0" flow="0.00" occupancy="0.00" speed="-1.00" harmonicMeanSpeed="-1.00" length="-1.00" nVehEntered="0"/>
    <interval begin="3600.00" end="7200.00" id="601:7Din" nVehContrib="1" flow="1.00" occupancy="0.02" speed="5.76" harmonicMeanSpeed="5.76" length="5.00" nVehEntered="1"/>
    <interval begin="3600.00" end="7200.00" id="601:11Din" nVehContrib="5" flow="5.00" occupancy="0.27" speed="2.68" harmonicMeanSpeed="2.59" length="5.00" nVehEntered="5"/>
    <interval begin="3600.00" end="7200.00" id="601:13Din" nVehContrib="2" flow="2.00" occupancy="0.04" speed="7.02" harmonicMeanSpeed="7.02" length="5.00" nVehEntered="2"/>
    <interval begin="3600.00" end="7200.00" id="601:15Din" nVehContrib="0" flow="0.00" occupancy="0.00" speed="-1.00" harmonicMeanSpeed="-1.00" length="-1.00" nVehEntered="0"/>
    <interval begin="3600.00" end="7200.00" id="601:17Din" nVehContrib="1" flow="1.00" occupancy="0.02" speed="5.79" harmonicMeanSpeed="5.79" length="5.00" nVehEntered="1"/>
    <interval begin="3600.00" end="7200.00" id="502:19Din" nVehContrib="10" flow="10.00" occupancy="0.56" speed="2.57" harmonicMeanSpeed="2.46" length="5.00" nVehEntered="10"/>
    <interval begin="3600.00" end="7200.00" id="502:21Din" nVehContrib="0" flow="0.00" occupancy="0.00" speed="-1.00" harmonicMeanSpeed="-1.00" length="-1.00" nVehEntered="0"/>
    <interval begin="3600.00" end="7200.00" id="502:23Din" nVehContrib="0" flow="0.00" occupancy="0.00" speed="-1.00" harmonicMeanSpeed="-1.00" length="-1.00" nVehEntered="0"/>
    <interval begin="3600.00" end="7200.00" id="502:17Din" nVehContrib="6" flow="6.00" occupancy="0.11" speed="7.84" harmonicMeanSpeed="7.83" length="5.00" nVehEntered="6"/>
    <interval begin="3600.00" end="7200.00" id="502:15Din" nVehContrib="17" flow="17.00" occupancy="0.23" speed="11.43" harmonicMeanSpeed="10.19" length="5.00" nVehEntered="17"/>
    <interval begin="3600.00" end="7200.00" id="502:13Din" nVehContrib="1" flow="1.00" occupancy="0.00" speed="28.23" harmonicMeanSpeed="28.23" length="5.00" nVehEntered="1"/>
    <interval begin="3600.00" end="7200.00" id="502:11Din" nVehContrib="5" flow="5.00" occupancy="0.06" speed="13.27" harmonicMeanSpeed="12.19" length="5.00" nVehEntered="5"/>
    <interval begin="3600.00" end="7200.00" id="502:1Din" nVehContrib="7" flow="7.00" occupancy="0.05" speed="22.45" harmonicMeanSpeed="20.23" length="5.00" nVehEntered="7"/>
    <interval begin="3600.00" end="7200.00" id="502:3Din" nVehContrib="0" flow="0.00" occupancy="0.00" speed="-1.00" harmonicMeanSpeed="-1.00" length="-1.00" nVehEntered="0"/>
    <interval begin="3600.00" end="7200.00" id="502:5Din" nVehContrib="2" flow="2.00" occupancy="0.02" speed="15.06" harmonicMeanSpeed="14.90" length="5.00" nVehEntered="2"/>
    <interval begin="3600.00" end="7200.00" id="502:7Din" nVehContrib="4" flow="4.00" occupancy="0.19" speed="2.89" harmonicMeanSpeed="2.89" length="5.00" nVehEntered="4"/>
    <interval begin="3600.00" end="7200.00" id="502:9Din" nVehContrib="1" flow="1.00" occupancy="0.02" speed="5.60" harmonicMeanSpeed="5.60" length="5.00" nVehEntered="1"/>
    <interval begin="3600.00" end="7200.00" id="302:9Din" nVehContrib="3" flow="3.00" occupancy="0.06" speed="7.48" harmonicMeanSpeed="7.48" length="5.00" nVehEntered="3"/>
    <interval begin="3600.00" end="7200.00" id="302:11Din" nVehContrib="3" flow="3.00" occupancy="0.03" speed="16.70" harmonicMeanSpeed="13.43" length="5.00" nVehEntered="3"/>
    <interval begin="3600.00" end="7200.00" id="302:13Din" nVehContrib="0" flow="0.00" occupancy="0.00" speed="-1.00" harmonicMeanSpeed="-1.00" length="-1.00" nVehEntered="0"/>
    <interval begin="3600.00" end="7200.00" id="302:15Din" nVehContrib="1" flow="1.00" occupancy="0.01" speed="23.97" harmonicMeanSpeed="23.97" length="5.00" nVehEntered="1"/>
    <interval begin="3600.00" end="7200.00" id="302:17Din" nVehContrib="3" flow="3.00" occupancy="0.02" speed="20.49" harmonicMeanSpeed="20.49" length="5.00" nVehEntered="3"/>
    <interval begin="3600.00" end="7200.00" id="302:19Din" nVehContrib="0" flow="0.00" occupancy="0.00" speed="-1.00" harmonicMeanSpeed="-1.00" length="-1.00" nVehEntered="0"/>
    <interval begin="3600.00" end="7200.00" id="302:21Din" nVehContrib="6" flow="6.00" occupancy="0.06" speed="17.27" harmonicMeanSpeed="15.71" length="5.00" nVehEntered="7"/>
    <interval begin="3600.00" end="7200.00" id="302:22Din" nVehContrib="1" flow="1.00" occupancy="0.03" speed="4.50" harmonicMeanSpeed="4.50" length="5.00" nVehEntered="1"/>
    <interval begin="3600.00" end="7200.00" id="302:24Din" nVehContrib="1" flow="1.00" occupancy="0.01" speed="18.83" harmonicMeanSpeed="18.83" length="5.00" nVehEntered="1"/>
    <interval begin="3600.00" end="7200.00" id="302:25Din" nVehContrib="5" flow="5.00" occupancy="5.59" speed="0.14" harmonicMeanSpeed="0.12" length="5.00" nVehEntered="5"/>
    <interval begin="3600.00" end="7200.00" id="302:27Din" nVehContrib="1" flow="1.00" occupancy="0.15" speed="13.52" harmonicMeanSpeed="13.52" length="5.00" nVehEntered="4"/>
    <interval begin="3600.00" end="7200.00" id="302:29Din" nVehContrib="2" flow="2.00" occupancy="1.34" speed="8.72" harmonicMeanSpeed="0.21" length="5.00" nVehEntered="2"/>
    <interval begin="3600.00" end="7200.00" id="302:1Din" nVehContrib="2" flow="2.00" occupancy="0.01" speed="25.79" harmonicMeanSpeed="25.63" length="5.00" nVehEntered="3"/>
    <interval begin="3600.00" end="7200.00" id="302:3Din" nVehContrib="1" flow="1.00" occupancy="0.03" speed="4.73" harmonicMeanSpeed="4.73" length="5.00" nVehEntered="1"/>
    <interval begin="3600.00" end="7200.00" id="302:5Din" nVehContrib="1" flow="1.00" occupancy="0.00" speed="27.82" harmonicMeanSpeed="27.82" length="5.00" nVehEntered="1"/>
    <interval begin="3600.00" end="7200.00" id="302:7Din" nVehContrib="3" flow="3.00" occupancy="0.02" speed="27.37" harmonicMeanSpeed="27.32" length="5.00" nVehEntered="3"/>
    <interval begin="3600.00" end="7200.00" id="402:8Din" nVehContrib="6" flow="6.00" occupancy="0.32" speed="2.71" harmonicMeanSpeed="2.64" length="5.00" nVehEntered="6"/>
    <interval begin="3600.00" end="7200.00" id="402:10Din" nVehContrib="0" flow="0.00" occupancy="0.00" speed="-1.00" harmonicMeanSpeed="-1.00" length="-1.00" nVehEntered="0"/>
    <interval begin="3600.00" end="7200.00" id="402:12Din" nVehContrib="0" flow="0.00" occupancy="0.00" speed="-1.00" harmonicMeanSpeed="-1.00" length="-1.00" nVehEntered="0"/>
    <interval begin="3600.00" end="7200.00" id="402:14Din" nVehContrib="1" flow="1.00" occupancy="0.01" speed="16.02" harmonicMeanSpeed="16.02" length="5.00" nVehEntered="1"/>
    <interval begin="3600.00" end="7200.00" id="402:16Din" nVehContrib="1" flow="1.00" occupancy="0.01" speed="14.13" harmonicMeanSpeed="14.13" length="5.00" nVehEntered="1"/>
    <interval begin="3600.00" end="7200.00" id="402:18Din" nVehContrib="3" flow="3.00" occupancy="0.03" speed="16.33" harmonicMeanSpeed="16.06" length="5.00" nVehEntered="3"/>
    <interval begin="3600.00" end="7200.00" id="402:1Din" nVehContrib="23" flow="23.00" occupancy="0.14" speed="23.05" harmonicMeanSpeed="22.64" length="5.00" nVehEntered="23"/>
    <interval begin="3600.00" end="7200.00" id="402:3Din" nVehContrib="2" flow="2.00" occupancy="0.01" speed="26.17" harmonicMeanSpeed="25.37" length="5.00" nVehEntered="2"/>
    <interval begin="3600.00" end="7200.00" id="402:5Din" nVehContrib="0" flow="0.00" occupancy="0.00" speed="-1.00" harmonicMeanSpeed="-1.00" length="-1.00" nVehEntered="0"/>
    <interval begin="3600.00" end="7200.00" id="404:13Din" nVehContrib="5" flow="5.00" occupancy="0.05" speed="18.39" harmonicMeanSpeed="15.33" length="5.00" nVehEntered="5"/>
    <interval begin="3600.00" end="7200.00" id="404:15Din" nVehContrib="1" flow="1.00" occupancy="0.01" speed="26.55" harmonicMeanSpeed="26.55" length="5.00" nVehEntered="1"/>
    <interval begin="3600.00" end="7200.00" id="404:17Din" nVehContrib="1" flow="1.00" occupancy="0.02" speed="6.41" harmonicMeanSpeed="6.41" length="5.00" nVehEntered="1"/>
    <interval begin="3600.00" end="7200.00" id="404:20Din" nVehContrib="3" flow="3.00" occupancy="0.02" speed="25.20" harmonicMeanSpeed="24.96" length="5.00" nVehEntered="3"/>
    <interval begin="3600.00" end="7200.00" id="404:21Din" nVehContrib="0" flow="0.00" occupancy="0.00" speed="-1.00" harmonicMeanSpeed="-1.00" length="-1.00" nVehEntered="0"/>
    <interval begin="3600.00" end="7200.00" id="404:23Din" nVehContrib="1" flow="1.00" occupancy="0.01" speed="27.27" harmonicMeanSpeed="27.27" length="5.00" nVehEntered="1"/>
    <interval begin="3600.00" end="7200.00" id="404:1Din" nVehContrib="7" flow="7.00" occupancy="0.03" speed="28.22" harmonicMeanSpeed="27.88" length="5.00" nVehEntered="7"/>
    <interval begin="3600.00" end="7200.00" id="404:3Din" nVehContrib="6" flow="6.00" occupancy="0.03" speed="28.25" harmonicMeanSpeed="28.09" length="5.00" nVehEntered="6"/>
    <interval begin="3600.00" end="7200.00" id="404:5Din" nVehContrib="3" flow="3.00" occupancy="0.02" speed="25.06" harmonicMeanSpeed="24.99" length="5.00" nVehEntered="3"/>
    <interval begin="3600.00" end="7200.00" id="404:8Din" nVehContrib="13" flow="13.00" occupancy="0.06" speed="29.42" harmonicMeanSpeed="29.12" length="5.00" nVehEntered="13"/>
    <interval begin="3600.00" end="7200.00" id="404:9Din" nVehContrib="3" flow="3.00" occupancy="0.02" speed="26.20" harmonicMeanSpeed="26.08" length="5.00" nVehEntered="3"/>
    <interval begin="3600.00" end="7200.00" id="404:11Din" nVehContrib="2" flow="2.00" occupancy="0.01" speed="27.02" harmonicMeanSpeed="27.02" length="5.00" nVehEntered="2"/>
    <interval begin="3600.00" end="7200.00" id="306:9Din" nVehContrib="10" flow="10.00" occupancy="0.62" speed="2.36" harmonicMeanSpeed="2.24" length="5.00" nVehEntered="10"/>
    <interval begin="3600.00" end="7200.00" id="306:11Din" nVehContrib="0" flow="0.00" occupancy="0.00" speed="-1.00" harmonicMeanSpeed="-1.00" length="-1.00" nVehEntered="0"/>
    <interval begin="3600.00" end="7200.00" id="306:13Din" nVehContrib="0" flow="0.00" occupancy="0.00" speed="-1.00" harmonicMeanSpeed="-1.00" length="-1.00" nVehEntered="0"/>
    <interval begin="3600.00" end="7200.00" id="306:15Din" nVehContrib="9" flow="9.00" occupancy="0.54" speed="2.42" harmonicMeanSpeed="2.30" length="5.00" nVehEntered="9"/>
    <interval begin="3600.00" end="7200.00" id="306:17Din" nVehContrib="0" flow="0.00" occupancy="0.00" speed="-1.00" harmonicMeanSpeed="-1.00" length="-1.00" nVehEntered="0"/>
    <interval begin="3600.00" end="7200.00" id="306:19Din" nVehContrib="0" flow="0.00" occupancy="0.00" speed="-1.00" harmonicMeanSpeed="-1.00" length="-1.00" nVehEntered="0"/>
    <interval begin="3600.00" end="7200.00" id="306:21Din" nVehContrib="0" flow="0.00" occupancy="0.00" speed="-1.00" harmonicMeanSpeed="-1.00" length="-1.00" nVehEntered="0"/>
    <interval begin="3600.00" end="7200.00" id="306:1Din" nVehContrib="6" flow="6.00" occupancy="0.10" speed="8.03" harmonicMeanSpeed="8.02" length="5.00" nVehEntered="6"/>
    <interval begin="3600.00" end="7200.00" id="306:3Din" nVehContrib="7" flow="7.00" occupancy="0.05" speed="21.06" harmonicMeanSpeed="21.04" length="5.00" nVehEntered="7"/>
    <interval begin="3600.00" end="7200.00" id="306:5Din" nVehContrib="7" flow="7.00" occupancy="0.05" speed="20.76" harmonicMeanSpeed="20.74" length="5.00" nVehEntered="7"/>
    <interval begin="3600.00" end="7200.00" id="306:7Din" nVehContrib="3" flow="3.00" occupancy="0.02" speed="20.79" harmonicMeanSpeed="20.69" length="5.00" nVehEntered="3"/>
    <interval begin="3600.00" end="7200.00" id="306:27Din" nVehContrib="1" flow="1.00" occupancy="0.01" speed="15.05" harmonicMeanSpeed="15.05" length="5.00" nVehEntered="1"/>
    <interval begin="3600.00" end="7200.00" id="306:29Din" nVehContrib="3" flow="3.00" occupancy="0.03" speed="16.41" harmonicMeanSpeed="15.71" length="5.00" nVehEntered="3"/>
    <interval begin="3600.00" end="7200.00" id="306:31Din" nVehContrib="0" flow="0.00" occupancy="0.00" speed="-1.00" harmonicMeanSpeed="-1.00" length="-1.00" nVehEntered="0"/>
    <interval begin="3600.00" end="7200.00" id="306:23Din" nVehContrib="7" flow="7.00" occupancy="0.12" speed="8.46" harmonicMeanSpeed="8.33" length="5.00" nVehEntered="7"/>
    <interval begin="3600.00" end="7200.00" id="306:25Din" nVehContrib="6" flow="6.00" occupancy="0.08" speed="9.96" harmonicMeanSpeed="9.81" length="5.00" nVehEntered="6"/>
    <interval begin="3600.00" end="7200.00" id="velocity0" nVehContrib="4" flow="4.00" occupancy="0.02" speed="28.81" harmonicMeanSpeed="28.59" length="5.00" nVehEntered="4"/>
    <interval begin="3600.00" end="7200.00" id="velocity1" nVehContrib="0" flow="0.00" occupancy="0.00" speed="-1.00" harmonicMeanSpeed="-1.00" length="-1.00" nVehEntered="0"/>
    <interval begin="3600.00" end="7200.00" id="velocity2" nVehContrib="0" flow="0.00" occupancy="0.00" speed="-1.00" harmonicMeanSpeed="-1.00" length="-1.00" nVehEntered="0"/>
    <interval begin="7200.00" end="10800.00" id="601:1Din" nVehContrib="4" flow="4.00" occupancy="0.02" speed="27.72" harmonicMeanSpeed="27.72" length="5.00" nVehEntered="4"/>
    <interval begin="7200.00" end="10800.00" id="601:3Din" nVehContrib="2" flow="2.00" occupancy="0.02" speed="13.47" harmonicMeanSpeed="13.47" length="5.00" nVehEntered="2"/>
    <interval begin="7200.00" end="10800.00" id="601:9Din" nVehContrib="3" flow="3.00" occupancy="0.17" speed="2.54" harmonicMeanSpeed="2.42" length="5.00" nVehEntered="3"/>
    <interval begin="7200.00" end="10800.00" id="601:5Din" nVehContrib="0" flow="0.00" occupancy="0.00" speed="-1.00" harmonicMeanSpeed="-1.00" length="-1.00" nVehEntered="0"/>
    <interval begin="7200.00" end="10800.00" id="601:7Din" nVehContrib="0" flow="0.00" occupancy="0.00" speed="-1.00" harmonicMeanSpeed="-1.00" length="-1.00" nVehEntered="0"/>
    <interval begin="7200.00" end="10800.00" id="601:11Din" nVehContrib="3" flow="3.00" occupancy="0.17" speed="2.54" harmonicMeanSpeed="2.42" length="5.00" nVehEntered="3"/>
    <interval begin="7200.00" end="10800.00" id="601:13Din" nVehContrib="0" flow="0.00" occupancy="0.00" speed="-1.00" harmonicMeanSpeed="-1.00" length="-1.00" nVehEntered="0"/>
    <interval begin="7200.00" end="10800.00" id="601:15Din" nVehContrib="1" flow="1.00" occupancy="0.01" speed="11.34" harmonicMeanSpeed="11.34" length="5.00" nVehEntered="1"/>
    <interval begin="7200.00" end="10800.00" id="601:17Din" nVehContrib="1" flow="1.00" occupancy="0.01" speed="14.36" harmonicMeanSpeed="14.36" length="5.00" nVehEntered="1"/>